Siesta Version  : 4.1.5
Architecture    : unknown
Compiler version: GNU Fortran (conda-forge gcc 12.3.0-5) 12.3.0
Compiler flags  : x86_64-conda-linux-gnu-gfortran -march=nocona -mtune=haswell -ftree-vectorizee -fPIC -fstack-protector-strong -fno-plt -O2 -ffunction-sections -pipe  -fallow-argument-mismatch
PP flags        : -DFC_HAVE_ABORT -DCDF -DNCDF -DNCDF_4
Libraries       : libncdf.a libfdict.a -llapack -lblas -lnetcdff -lnetcdf -lhdf5_hl -lhdf5 -lz
SERIAL version
NetCDF support
NetCDF-4 support

* Running in serial mode
>> Start of run:  26-JUN-2024  11:51:54

                           ***********************       
                           *  WELCOME TO SIESTA  *       
                           ***********************       

reinit: Reading from nanoribbon_graphene4.fdf

reinit: -----------------------------------------------------------------------
reinit: System Name: 
reinit: -----------------------------------------------------------------------
reinit: System Label: siesta
reinit: -----------------------------------------------------------------------

initatom: Reading input for the pseudopotentials and atomic orbitals ----------
Species number:   1 Atomic number:    6 Label: C
Species number:   2 Atomic number:    1 Label: H

Ground state valence configuration:   2s02  2p02
Reading pseudopotential information in formatted form from C.psf

Valence configuration for pseudopotential generation:
2s( 2.00) rc: 1.54
2p( 2.00) rc: 1.54
3d( 0.00) rc: 1.54
4f( 0.00) rc: 1.54
Ground state valence configuration:   1s01
Reading pseudopotential information in formatted form from H.psf

Valence configuration for pseudopotential generation:
1s( 1.00) rc: 1.31
2p( 0.00) rc: 1.31
3d( 0.00) rc: 0.37
4f( 0.00) rc: 1.31
For C, standard SIESTA heuristics set lmxkb to 3
 (one more than the basis l, including polarization orbitals).
Use PS.lmax or PS.KBprojectors blocks to override.
For H, standard SIESTA heuristics set lmxkb to 2
 (one more than the basis l, including polarization orbitals).
Use PS.lmax or PS.KBprojectors blocks to override.

<basis_specs>
===============================================================================
C                    Z=   6    Mass=  12.010        Charge= 0.17977+309
Lmxo=1 Lmxkb= 3    BasisType=split      Semic=F
L=0  Nsemic=0  Cnfigmx=2
          i=1  nzeta=2  polorb=0  (2s)
            splnorm:   0.15000    
               vcte:    0.0000    
               rinn:    0.0000    
               qcoe:    0.0000    
               qyuk:    0.0000    
               qwid:   0.10000E-01
                rcs:    0.0000      0.0000    
            lambdas:    1.0000      1.0000    
L=1  Nsemic=0  Cnfigmx=2
          i=1  nzeta=2  polorb=1  (2p)
            splnorm:   0.15000    
               vcte:    0.0000    
               rinn:    0.0000    
               qcoe:    0.0000    
               qyuk:    0.0000    
               qwid:   0.10000E-01
                rcs:    0.0000      0.0000    
            lambdas:    1.0000      1.0000    
-------------------------------------------------------------------------------
L=0  Nkbl=1  erefs: 0.17977+309
L=1  Nkbl=1  erefs: 0.17977+309
L=2  Nkbl=1  erefs: 0.17977+309
L=3  Nkbl=1  erefs: 0.17977+309
===============================================================================
</basis_specs>

atom: Called for C                     (Z =   6)

read_vps: Pseudopotential generation method:
read_vps: ATM3      Troullier-Martins                       
Valence charge for ps generation:    4.00000

read_vps: Pseudopotential includes a core correction:
read_vps: Pseudo-core for xc-correction

xc_check: Exchange-correlation functional:
xc_check: Ceperley-Alder
xc_check: WARNING: Pseudopotential generated with GGA PBE functional
V l=0 = -2*Zval/r beyond r=  1.5227
V l=1 = -2*Zval/r beyond r=  1.5227
V l=2 = -2*Zval/r beyond r=  1.5227
V l=3 = -2*Zval/r beyond r=  1.5038
All V_l potentials equal beyond r=  1.5227
This should be close to max(r_c) in ps generation
All pots = -2*Zval/r beyond r=  1.5227

VLOCAL1: 99.0% of the norm of Vloc inside     18.722 Ry
VLOCAL1: 99.9% of the norm of Vloc inside     42.668 Ry
atom: Maximum radius for 4*pi*r*r*local-pseudopot. charge    1.83678
atom: Maximum radius for r*vlocal+2*Zval:    1.58088
GHOST: No ghost state for L =  0
GHOST: No ghost state for L =  1
GHOST: No ghost state for L =  2
GHOST: No ghost state for L =  3

KBgen: Kleinman-Bylander projectors: 
   l= 0   rc=  1.704034   el= -0.998584   Ekb=  5.327875   kbcos=  0.314897
   l= 1   rc=  1.704034   el= -0.383998   Ekb= -3.785479   kbcos= -0.363289
   l= 2   rc=  1.791422   el=  0.002326   Ekb= -0.971263   kbcos= -0.009325
   l= 3   rc=  1.859892   el=  0.003420   Ekb= -0.399672   kbcos= -0.001232

KBgen: Total number of Kleinman-Bylander projectors:   16
atom: -------------------------------------------------------------------------

atom: SANKEY-TYPE ORBITALS:
atom: Selected multiple-zeta basis: split     

SPLIT: Orbitals with angular momentum L= 0

SPLIT: Basis orbitals for state 2s

SPLIT: PAO cut-off radius determined from an
SPLIT: energy shift=  0.020000 Ry

   izeta = 1
                 lambda =    1.000000
                     rc =    4.191849
                 energy =   -0.980459
                kinetic =    0.881507
    potential(screened) =   -1.861966
       potential(ionic) =   -5.449625

   izeta = 2
                 rmatch =    3.431921
              splitnorm =    0.150000
                 energy =   -0.849396
                kinetic =    1.300036
    potential(screened) =   -2.149433
       potential(ionic) =   -5.962781

SPLIT: Orbitals with angular momentum L= 1

SPLIT: Basis orbitals for state 2p

SPLIT: PAO cut-off radius determined from an
SPLIT: energy shift=  0.020000 Ry

   izeta = 1
                 lambda =    1.000000
                     rc =    4.993604
                 energy =   -0.366127
                kinetic =    2.463190
    potential(screened) =   -2.829316
       potential(ionic) =   -6.291180

   izeta = 2
                 rmatch =    3.518811
              splitnorm =    0.150000
                 energy =   -0.204163
                kinetic =    3.723883
    potential(screened) =   -3.928045
       potential(ionic) =   -7.766545

POLgen: Perturbative polarization orbital with L=  2

POLgen: Polarization orbital for state 2p

   izeta = 1
                     rc =    4.993604
                 energy =    1.232619
                kinetic =    2.527283
    potential(screened) =   -1.294664
       potential(ionic) =   -4.203101
atom: Total number of Sankey-type orbitals: 13

atm_pop: Valence configuration (for local Pseudopot. screening):
 2s( 2.00)                                                            
 2p( 2.00)                                                            
Vna: chval, zval:    4.00000   4.00000

Vna:  Cut-off radius for the neutral-atom potential:   4.993604
comcore: Pseudo-core radius Rcore=  1.791422

atom: _________________________________________________________________________

<basis_specs>
===============================================================================
H                    Z=   1    Mass=  1.0100        Charge= 0.17977+309
Lmxo=0 Lmxkb= 2    BasisType=split      Semic=F
L=0  Nsemic=0  Cnfigmx=1
          i=1  nzeta=2  polorb=1  (1s)
            splnorm:   0.15000    
               vcte:    0.0000    
               rinn:    0.0000    
               qcoe:    0.0000    
               qyuk:    0.0000    
               qwid:   0.10000E-01
                rcs:    0.0000      0.0000    
            lambdas:    1.0000      1.0000    
-------------------------------------------------------------------------------
L=0  Nkbl=1  erefs: 0.17977+309
L=1  Nkbl=1  erefs: 0.17977+309
L=2  Nkbl=1  erefs: 0.17977+309
===============================================================================
</basis_specs>

atom: Called for H                     (Z =   1)

read_vps: Pseudopotential generation method:
read_vps: ATM3      Troullier-Martins                       
Valence charge for ps generation:    1.00000

xc_check: Exchange-correlation functional:
xc_check: Ceperley-Alder
xc_check: WARNING: Pseudopotential generated with GGA PBE functional
V l=0 = -2*Zval/r beyond r=  1.2977
V l=1 = -2*Zval/r beyond r=  1.2815
V l=2 = -2*Zval/r beyond r=  1.2656
All V_l potentials equal beyond r=  1.2977
This should be close to max(r_c) in ps generation
All pots = -2*Zval/r beyond r=  1.2977

VLOCAL1: 99.0% of the norm of Vloc inside     25.776 Ry
VLOCAL1: 99.9% of the norm of Vloc inside     58.745 Ry
atom: Maximum radius for 4*pi*r*r*local-pseudopot. charge    1.52711
atom: Maximum radius for r*vlocal+2*Zval:    1.28155
GHOST: No ghost state for L =  0
GHOST: No ghost state for L =  1
GHOST: No ghost state for L =  2

KBgen: Kleinman-Bylander projectors: 
   l= 0   rc=  1.434438   el= -0.456815   Ekb= -1.960338   kbcos= -0.349997
   l= 1   rc=  1.508111   el=  0.001431   Ekb= -0.423993   kbcos= -0.025386
   l= 2   rc=  1.546352   el=  0.002365   Ekb= -0.376562   kbcos= -0.002012

KBgen: Total number of Kleinman-Bylander projectors:    9
atom: -------------------------------------------------------------------------

atom: SANKEY-TYPE ORBITALS:
atom: Selected multiple-zeta basis: split     

SPLIT: Orbitals with angular momentum L= 0

SPLIT: Basis orbitals for state 1s

SPLIT: PAO cut-off radius determined from an
SPLIT: energy shift=  0.020000 Ry

   izeta = 1
                 lambda =    1.000000
                     rc =    4.828263
                 energy =   -0.438372
                kinetic =    0.921576
    potential(screened) =   -1.359947
       potential(ionic) =   -1.906664

   izeta = 2
                 rmatch =    3.903467
              splitnorm =    0.150000
                 energy =   -0.330751
                kinetic =    1.475177
    potential(screened) =   -1.805928
       potential(ionic) =   -2.389550

POLgen: Perturbative polarization orbital with L=  1

POLgen: Polarization orbital for state 1s

   izeta = 1
                     rc =    4.828263
                 energy =    0.711580
                kinetic =    1.391494
    potential(screened) =   -0.679914
       potential(ionic) =   -1.168115
atom: Total number of Sankey-type orbitals:  5

atm_pop: Valence configuration (for local Pseudopot. screening):
 1s( 1.00)                                                            
Vna: chval, zval:    1.00000   1.00000

Vna:  Cut-off radius for the neutral-atom potential:   4.828263

atom: _________________________________________________________________________

prinput: Basis input ----------------------------------------------------------

PAO.BasisType split     

%block ChemicalSpeciesLabel
    1    6 C                       # Species index, atomic number, species label
    2    1 H                       # Species index, atomic number, species label
%endblock ChemicalSpeciesLabel

%block PAO.Basis                 # Define Basis set
C                     2                    # Species label, number of l-shells
 n=2   0   2                         # n, l, Nzeta 
   4.192      3.432   
   1.000      1.000   
 n=2   1   2 P   1                   # n, l, Nzeta, Polarization, NzetaPol
   4.994      3.519   
   1.000      1.000   
H                     1                    # Species label, number of l-shells
 n=1   0   2 P   1                   # n, l, Nzeta, Polarization, NzetaPol
   4.828      3.903   
   1.000      1.000   
%endblock PAO.Basis

prinput: ----------------------------------------------------------------------

Dumping basis to NetCDF file C.ion.nc
Dumping basis to NetCDF file H.ion.nc
coor:   Atomic-coordinates input format  =     Cartesian coordinates
coor:                                          (in Angstroms)

siesta: Atomic coordinates (Bohr) and species
siesta:      0.00000  18.89727   0.00000  1        1
siesta:      0.00000  24.26409   0.00000  1        2
siesta:      0.00000  26.94751   0.00000  1        3
siesta:      0.00000  32.31433   0.00000  1        4
siesta:      2.32390  20.23897   0.00000  1        5
siesta:      2.32390  22.92239   0.00000  1        6
siesta:      2.32390  28.28921   0.00000  1        7
siesta:      2.32390  30.97262   0.00000  1        8
siesta:      0.00000  16.83747   0.00000  2        9
siesta:      0.00000  34.37413   0.00000  2       10

siesta: System type = chain     

initatomlists: Number of atoms, orbitals, and projectors:     10   114   146

siesta: ******************** Simulation parameters ****************************
siesta:
siesta: The following are some of the parameters of the simulation.
siesta: A complete list of the parameters used, including default values,
siesta: can be found in file out.fdf
siesta:
redata: Spin configuration                          = collinear
redata: Number of spin components                   = 2
redata: Time-Reversal Symmetry                      = T
redata: Spin spiral                                 = F
redata: Long output                                 =   F
redata: Number of Atomic Species                    =        2
redata: Charge density info will appear in .RHO file
redata: Write Mulliken Pop.                         = NO
redata: Matel table size (NRTAB)                    =     1024
redata: Mesh Cutoff                                 =   300.0000 Ry
redata: Net charge of the system                    =     0.0000 |e|
redata: Min. number of SCF Iter                     =        0
redata: Max. number of SCF Iter                     =     1000
redata: SCF convergence failure will abort job
redata: SCF mix quantity                            = Hamiltonian
redata: Mix DM or H after convergence               =   F
redata: Recompute H after scf cycle                 =   F
redata: Mix DM in first SCF step                    =   T
redata: Write Pulay info on disk                    =   F
redata: New DM Occupancy tolerance                  = 0.000000000001
redata: No kicks to SCF
redata: DM Mixing Weight for Kicks                  =     0.5000
redata: Require Harris convergence for SCF          =   F
redata: Harris energy tolerance for SCF             =     0.000100 eV
redata: Require DM convergence for SCF              =   T
redata: DM tolerance for SCF                        =     0.000100
redata: Require EDM convergence for SCF             =   F
redata: EDM tolerance for SCF                       =     0.001000 eV
redata: Require H convergence for SCF               =   T
redata: Hamiltonian tolerance for SCF               =     0.001000 eV
redata: Require (free) Energy convergence for SCF   =   F
redata: (free) Energy tolerance for SCF             =     0.000100 eV
redata: Antiferro initial spin density              =   T
redata: Using Saved Data (generic)                  =   F
redata: Use continuation files for DM               =   F
redata: Neglect nonoverlap interactions             =   F
redata: Method of Calculation                       = Diagonalization
redata: Electronic Temperature                      =   299.9869 K
redata: Fix the spin of the system                  =   F
redata: Dynamics option                             = Single-point calculation
mix.SCF: Pulay mixing                            = Pulay
mix.SCF:    Variant                              = stable
mix.SCF:    History steps                        = 3
mix.SCF:    Linear mixing weight                 =     0.100000
mix.SCF:    Mixing weight                        =     0.100000
mix.SCF:    SVD condition                        = 0.1000E-07
mix.SCF: Spin-component mixing                   all
redata: Save all siesta data in one NC              =   F
redata: ***********************************************************************

%block SCF.Mixers
  Pulay
%endblock SCF.Mixers

%block SCF.Mixer.Pulay
  # Mixing method
  method pulay
  variant stable

  # Mixing options
  weight 0.1000
  weight.linear 0.1000
  history 3
%endblock SCF.Mixer.Pulay

DM_history_depth set to one: no extrapolation allowed by default for geometry relaxation
Size of DM history Fstack: 1
Total number of electrons:    34.000000
Total ionic charge:    34.000000
k-point displ. along   1 input, could be:     0.00    0.50
 Kpoints in:            3 . Kpoints trimmed:            3

siesta: k-grid: Number of k-points =     3
siesta: k-grid: Cutoff (effective) =     4.919 Ang
siesta: k-grid: Supercell and displacements
siesta: k-grid:    4   0   0      0.000
siesta: k-grid:    0   1   0      0.000
siesta: k-grid:    0   0   1      0.000

diag: Algorithm                                     = D&C
diag: Used triangular part                          = Lower
diag: Absolute tolerance                            =  0.100E-15
diag: Orthogonalization factor                      =  0.100E-05
diag: Memory factor                                 =  1.0000

superc: Internal auxiliary supercell:     5 x     1 x     1  =       5
superc: Number of atoms, orbitals, and projectors:     50    570    730


ts: **************************************************************
ts: Save H and S matrices                           =    T
ts: Save DM and EDM matrices                        =    F
ts: Only save the overlap matrix S                  =    F
ts: **************************************************************

************************ Begin: TS CHECKS AND WARNINGS ************************
************************ End: TS CHECKS AND WARNINGS **************************


                     ====================================
                        Single-point calculation
                     ====================================

superc: Internal auxiliary supercell:     5 x     1 x     1  =       5
superc: Number of atoms, orbitals, and projectors:     50    570    730

outcell: Unit cell vectors (Ang):
        2.459512    0.000000    0.000000
        0.000000   28.520000    0.000000
        0.000000    0.000000   14.200000

outcell: Cell vector modules (Ang)   :    2.459512   28.520000   14.200000
outcell: Cell angles (23,13,12) (deg):     90.0000     90.0000     90.0000
outcell: Cell volume (Ang**3)        :    996.0631
<dSpData1D:S at geom step 0
  <sparsity:sparsity for geom step 0
    nrows_g=114 nrows=114 sparsity=3.2236 nnzs=41894, refcount: 7>
  <dData1D:(new from dSpData1D) n=41894, refcount: 1>
refcount: 1>
new_DM -- step:     1
Initializing Density Matrix...
DM filled with atomic data:
<dSpData2D:DM initialized from atoms
  <sparsity:sparsity for geom step 0
    nrows_g=114 nrows=114 sparsity=3.2236 nnzs=41894, refcount: 8>
  <dData2D:DM n=41894 m=2, refcount: 1>
refcount: 1>
     spin moment: S , {S} =    0.00000       0.0       0.0   0.00000
No. of atoms with KB's overlaping orbs in proc 0. Max # of overlaps:      30     174
New grid distribution:   1
           1       1:   15    1:  150    1:   75

InitMesh: MESH =    30 x   300 x   150 =     1350000
InitMesh: (bp) =    15 x   150 x    75 =      168750
InitMesh: Mesh cutoff (required, used) =   300.000   305.805 Ry
ExtMesh (bp) on 0 =    83 x   206 x   131 =     2239838
PhiOnMesh: Number of (b)points on node 0 =               168750
PhiOnMesh: nlist on node 0 =              1248577

stepf: Fermi-Dirac step function

siesta: Program's energy decomposition (eV):
siesta: Ebs     =      -369.244379
siesta: Eions   =      2082.267704
siesta: Ena     =       444.972223
siesta: Ekin    =       928.543888
siesta: Enl     =      -105.990918
siesta: Eso     =         0.000000
siesta: Edftu   =         0.000000
siesta: DEna    =       -44.285144
siesta: DUscf   =         4.490515
siesta: DUext   =         0.000000
siesta: Exc     =      -467.168231
siesta: eta*DQ  =         0.000000
siesta: Emadel  =         0.000000
siesta: Emeta   =         0.000000
siesta: Emolmec =         0.000000
siesta: Ekinion =         0.000000
siesta: Eharris =     -1315.774560
siesta: Etot    =     -1321.705370
siesta: FreeEng =     -1321.705370

        iscf     Eharris(eV)        E_KS(eV)     FreeEng(eV)     dDmax    Ef(eV) dHmax(eV)
   scf:    1    -1315.774560    -1321.705370    -1321.705370  0.969497 -5.155532  6.428843
     spin moment: S , {S} =   -0.00000       0.0       0.0  -0.00000
timer: Routine,Calls,Time,% = IterSCF        1       2.919  51.41
   scf:    2    -1322.599655    -1322.158333    -1322.158333  0.015259 -4.749820  5.386657
     spin moment: S , {S} =   -0.00000       0.0       0.0  -0.00000
   scf:    3    -1324.398744    -1323.424243    -1323.424243  0.073220 -3.549340  1.260758
     spin moment: S , {S} =   -0.00000       0.0       0.0  -0.00000
   scf:    4    -1323.558892    -1323.496849    -1323.496849  0.008911 -3.683558  1.120481
     spin moment: S , {S} =   -0.00000       0.0       0.0  -0.00000
   scf:    5    -1323.726436    -1323.610070    -1323.610070  0.010703 -3.723331  0.541187
     spin moment: S , {S} =   -0.00000       0.0       0.0  -0.00000
   scf:    6    -1323.674151    -1323.641600    -1323.641600  0.004050 -3.729836  0.435462
     spin moment: S , {S} =    0.00000       0.0       0.0   0.00000
   scf:    7    -1323.696592    -1323.667901    -1323.667906  0.005610 -3.752049  0.129653
     spin moment: S , {S} =    0.00000       0.0       0.0   0.00000
   scf:    8    -1323.669568    -1323.668744    -1323.668750  0.000272 -3.748234  0.111485
     spin moment: S , {S} =    0.00000       0.0       0.0   0.00000
   scf:    9    -1323.672123    -1323.670520    -1323.670524  0.000903 -3.736856  0.057127
     spin moment: S , {S} =    0.00000       0.0       0.0   0.00000
   scf:   10    -1323.671166    -1323.670845    -1323.670849  0.000250 -3.736375  0.047478
     spin moment: S , {S} =    0.00000       0.0       0.0   0.00000
   scf:   11    -1323.671273    -1323.671058    -1323.671062  0.000160 -3.737012  0.043814
     spin moment: S , {S} =    0.00000       0.0       0.0   0.00000
   scf:   12    -1323.672477    -1323.671726    -1323.671730  0.000689 -3.742022  0.020756
     spin moment: S , {S} =    0.00000       0.0       0.0   0.00000
   scf:   13    -1323.671841    -1323.671782    -1323.671787  0.000117 -3.742139  0.017120
     spin moment: S , {S} =    0.00000       0.0       0.0   0.00000
   scf:   14    -1323.671929    -1323.671850    -1323.671855  0.000257 -3.741339  0.005591
     spin moment: S , {S} =    0.00000       0.0       0.0   0.00000
   scf:   15    -1323.671857    -1323.671854    -1323.671858  0.000033 -3.741090  0.004453
     spin moment: S , {S} =    0.00000       0.0       0.0   0.00000
   scf:   16    -1323.671861    -1323.671857    -1323.671862  0.000051 -3.740726  0.003714
     spin moment: S , {S} =    0.00000       0.0       0.0   0.00000
   scf:   17    -1323.671861    -1323.671860    -1323.671865  0.000020 -3.740700  0.002965
     spin moment: S , {S} =    0.00000       0.0       0.0   0.00000
   scf:   18    -1323.671863    -1323.671862    -1323.671866  0.000020 -3.740679  0.002461
     spin moment: S , {S} =    0.00000       0.0       0.0   0.00000
   scf:   19    -1323.671867    -1323.671864    -1323.671868  0.000052 -3.740639  0.001606
     spin moment: S , {S} =    0.00000       0.0       0.0   0.00000
   scf:   20    -1323.671865    -1323.671865    -1323.671869  0.000015 -3.740627  0.001169
     spin moment: S , {S} =    0.00000       0.0       0.0   0.00000
   scf:   21    -1323.671866    -1323.671865    -1323.671869  0.000032 -3.740601  0.000361
     spin moment: S , {S} =    0.00000       0.0       0.0   0.00000

SCF Convergence by DM+H criterion
max |DM_out - DM_in|         :     0.0000321283
max |H_out - H_in|      (eV) :     0.0003612192
SCF cycle converged after 21 iterations

Using DM_out to compute the final energy and forces
No. of atoms with KB's overlaping orbs in proc 0. Max # of overlaps:      30     174

siesta: E_KS(eV) =            -1323.6719

siesta: E_KS - E_eggbox =     -1323.6719
     spin moment: S , {S} =    0.00000       0.0       0.0   0.00000

siesta: Atomic forces (eV/Ang):
----------------------------------------
   Tot   -0.000000    0.004828   -0.000000
----------------------------------------
   Max    1.434782
   Res    0.574621    sqrt( Sum f_i^2 / 3N )
----------------------------------------
   Max    1.434782    constrained

Stress tensor Voigt[x,y,z,yz,xz,xy] (kbar):       -2.08       -4.85        0.01       -0.00       -0.00        0.00
(Free)E + p*V (eV/cell)    -1322.2388
Target enthalpy (eV/cell)    -1323.6719

siesta: Program's energy decomposition (eV):
siesta: Ebs     =      -424.030301
siesta: Eions   =      2082.267704
siesta: Ena     =       444.972223
siesta: Ekin    =       899.667466
siesta: Enl     =      -100.234680
siesta: Eso     =         0.000000
siesta: Edftu   =         0.000000
siesta: DEna    =       -26.881365
siesta: DUscf   =         2.615629
siesta: DUext   =         0.000000
siesta: Exc     =      -461.543434
siesta: eta*DQ  =         0.000000
siesta: Emadel  =         0.000000
siesta: Emeta   =         0.000000
siesta: Emolmec =         0.000000
siesta: Ekinion =         0.000000
siesta: Eharris =     -1323.671866
siesta: Etot    =     -1323.671865
siesta: FreeEng =     -1323.671869

siesta: Final energy (eV):
siesta:  Band Struct. =    -424.030301
siesta:       Kinetic =     899.667466
siesta:       Hartree =    6721.649326
siesta:       Edftu   =       0.000000
siesta:       Eso     =       0.000000
siesta:    Ext. field =       0.000000
siesta:   Exch.-corr. =    -461.543434
siesta:  Ion-electron =  -14239.377127
siesta:       Ion-ion =    5755.931905
siesta:       Ekinion =       0.000000
siesta:         Total =   -1323.671865
siesta:         Fermi =      -3.740601

siesta: Atomic forces (eV/Ang):
siesta:      1   -0.000000    1.389493    0.000000
siesta:      2   -0.000000   -0.505062   -0.000000
siesta:      3   -0.000000    0.504803    0.000000
siesta:      4   -0.000000   -1.388728    0.000000
siesta:      5    0.000000   -1.433792   -0.000000
siesta:      6    0.000000    0.585190    0.000000
siesta:      7    0.000000   -0.582239    0.000000
siesta:      8    0.000000    1.434782   -0.000000
siesta:      9    0.000000   -0.608371   -0.000000
siesta:     10   -0.000000    0.608751   -0.000000
siesta: ----------------------------------------
siesta:    Tot   -0.000000    0.004828   -0.000000

siesta: Stress tensor (static) (eV/Ang**3):
siesta:    -0.001295    0.000000   -0.000000
siesta:     0.000000   -0.003025   -0.000000
siesta:    -0.000000   -0.000000    0.000005

siesta: Cell volume =        996.063069 Ang**3

siesta: Pressure (static):
siesta:                Solid            Molecule  Units
siesta:           0.00001567          0.00000477  Ry/Bohr**3
siesta:           0.00143870          0.00043784  eV/Ang**3
siesta:           2.30508046          0.70150349  kBar
(Free)E+ p_basis*V_orbitals  =       -1320.709920
(Free)Eharris+ p_basis*V_orbitals  =       -1320.709921
     spin moment: S , {S} =    0.00000       0.0       0.0   0.00000

siesta: Electric dipole (a.u.)  =    0.000000   -0.000001   -0.000000
siesta: Electric dipole (Debye) =    0.000000   -0.000003   -0.000000

dhscf: Vacuum level (max, mean) =    0.252007   -0.108011 eV

cite: Please see "siesta.bib" for an exhaustive BiBTeX file.
cite: Please clearly indicate Siesta version in published work: 4.1.5
cite: This calculation has made use of the following articles
cite: which are encouraged to be cited in a published work.
        Primary SIESTA paper
          DOI: www.doi.org/10.1088/0953-8984/14/11/302


timer: Elapsed wall time (sec) =      20.323
timer: CPU execution times (sec):

Routine            Calls   Time/call    Tot.time        %
siesta                 1      50.225      50.225   100.00
Setup                  1       0.961       0.961     1.91
bands                  1       0.000       0.000     0.00
KSV_init               1       0.000       0.000     0.00
IterGeom               1      48.825      48.825    97.21
state_init             1       0.131       0.131     0.26
hsparse                1       0.002       0.002     0.00
overlap                1       0.124       0.124     0.25
Setup_H0               1       1.666       1.666     3.32
naefs                  2       0.000       0.000     0.00
MolMec                 2       0.000       0.000     0.00
kinefsm                2       0.066       0.131     0.26
nlefsm                 2       0.442       0.883     1.76
DHSCF_Init             1       0.699       0.699     1.39
DHSCF1                 1       0.021       0.021     0.04
INITMESH               1       0.000       0.000     0.00
DHSCF2                 1       0.679       0.679     1.35
REMESH                 1       0.121       0.121     0.24
REORD                112       0.002       0.192     0.38
PHION                  1       0.432       0.432     0.86
COMM_BSC             194       0.001       0.235     0.47
POISON                25       0.040       1.009     2.01
fft                   50       0.015       0.742     1.48
IterSCF               21       2.162      45.400    90.39
setup_H               22       1.621      35.663    71.01
DHSCF                 24       1.566      37.579    74.82
DHSCF3                24       1.528      36.673    73.02
rhoofd                24       1.047      25.137    50.05
XC                    24       0.050       1.189     2.37
GXC-CellXC            24       0.037       0.883     1.76
cellXC                24       0.037       0.883     1.76
vmat                  23       0.270       6.207    12.36
compute_dm            21       0.461       9.681    19.27
diagon                21       0.459       9.647    19.21
c-eigval             126       0.021       2.660     5.30
c-buildHS            126       0.005       0.688     1.37
cdiag                252       0.023       5.691    11.33
cdiag1               252       0.002       0.391     0.78
cdiag2               252       0.003       0.823     1.64
cdiag3               252       0.017       4.408     8.78
c-eigvec             126       0.036       4.489     8.94
cdiag4               126       0.000       0.026     0.05
c-buildD             126       0.020       2.461     4.90
MIXER                 20       0.001       0.014     0.03
PostSCF                1       1.627       1.627     3.24
DHSCF4                 1       0.906       0.906     1.80
dfscf                  1       0.815       0.815     1.62
overfsm                1       0.007       0.007     0.01
state_analysis         1       0.000       0.000     0.00
siesta_move            1       0.000       0.000     0.00
Analysis               1       0.437       0.437     0.87
siesta_analysis        1       0.437       0.437     0.87
optical                1       0.000       0.000     0.00
  
>> End of run:  26-JUN-2024  11:52:14
Job completed
