Siesta Version  : 4.1.5
Architecture    : unknown
Compiler version: GNU Fortran (conda-forge gcc 12.3.0-5) 12.3.0
Compiler flags  : x86_64-conda-linux-gnu-gfortran -march=nocona -mtune=haswell -ftree-vectorizee -fPIC -fstack-protector-strong -fno-plt -O2 -ffunction-sections -pipe  -fallow-argument-mismatch
PP flags        : -DFC_HAVE_ABORT -DCDF -DNCDF -DNCDF_4
Libraries       : libncdf.a libfdict.a -llapack -lblas -lnetcdff -lnetcdf -lhdf5_hl -lhdf5 -lz
SERIAL version
NetCDF support
NetCDF-4 support

* Running in serial mode
>> Start of run:  21-JUN-2024  19:02:03

                           ***********************       
                           *  WELCOME TO SIESTA  *       
                           ***********************       

reinit: Reading from nanoribbon_graphene5.fdf

reinit: -----------------------------------------------------------------------
reinit: System Name: 
reinit: -----------------------------------------------------------------------
reinit: System Label: siesta
reinit: -----------------------------------------------------------------------

initatom: Reading input for the pseudopotentials and atomic orbitals ----------
Species number:   1 Atomic number:    6 Label: C
Species number:   2 Atomic number:    1 Label: H

Ground state valence configuration:   2s02  2p02
Reading pseudopotential information in formatted form from C.psf

Valence configuration for pseudopotential generation:
2s( 2.00) rc: 1.54
2p( 2.00) rc: 1.54
3d( 0.00) rc: 1.54
4f( 0.00) rc: 1.54
Ground state valence configuration:   1s01
Reading pseudopotential information in formatted form from H.psf

Valence configuration for pseudopotential generation:
1s( 1.00) rc: 1.31
2p( 0.00) rc: 1.31
3d( 0.00) rc: 0.37
4f( 0.00) rc: 1.31
For C, standard SIESTA heuristics set lmxkb to 3
 (one more than the basis l, including polarization orbitals).
Use PS.lmax or PS.KBprojectors blocks to override.
For H, standard SIESTA heuristics set lmxkb to 2
 (one more than the basis l, including polarization orbitals).
Use PS.lmax or PS.KBprojectors blocks to override.

<basis_specs>
===============================================================================
C                    Z=   6    Mass=  12.010        Charge= 0.17977+309
Lmxo=1 Lmxkb= 3    BasisType=split      Semic=F
L=0  Nsemic=0  Cnfigmx=2
          i=1  nzeta=2  polorb=0  (2s)
            splnorm:   0.15000    
               vcte:    0.0000    
               rinn:    0.0000    
               qcoe:    0.0000    
               qyuk:    0.0000    
               qwid:   0.10000E-01
                rcs:    0.0000      0.0000    
            lambdas:    1.0000      1.0000    
L=1  Nsemic=0  Cnfigmx=2
          i=1  nzeta=2  polorb=1  (2p)
            splnorm:   0.15000    
               vcte:    0.0000    
               rinn:    0.0000    
               qcoe:    0.0000    
               qyuk:    0.0000    
               qwid:   0.10000E-01
                rcs:    0.0000      0.0000    
            lambdas:    1.0000      1.0000    
-------------------------------------------------------------------------------
L=0  Nkbl=1  erefs: 0.17977+309
L=1  Nkbl=1  erefs: 0.17977+309
L=2  Nkbl=1  erefs: 0.17977+309
L=3  Nkbl=1  erefs: 0.17977+309
===============================================================================
</basis_specs>

atom: Called for C                     (Z =   6)

read_vps: Pseudopotential generation method:
read_vps: ATM3      Troullier-Martins                       
Valence charge for ps generation:    4.00000

read_vps: Pseudopotential includes a core correction:
read_vps: Pseudo-core for xc-correction

xc_check: Exchange-correlation functional:
xc_check: Ceperley-Alder
xc_check: WARNING: Pseudopotential generated with GGA PBE functional
V l=0 = -2*Zval/r beyond r=  1.5227
V l=1 = -2*Zval/r beyond r=  1.5227
V l=2 = -2*Zval/r beyond r=  1.5227
V l=3 = -2*Zval/r beyond r=  1.5038
All V_l potentials equal beyond r=  1.5227
This should be close to max(r_c) in ps generation
All pots = -2*Zval/r beyond r=  1.5227

VLOCAL1: 99.0% of the norm of Vloc inside     18.722 Ry
VLOCAL1: 99.9% of the norm of Vloc inside     42.668 Ry
atom: Maximum radius for 4*pi*r*r*local-pseudopot. charge    1.83678
atom: Maximum radius for r*vlocal+2*Zval:    1.58088
GHOST: No ghost state for L =  0
GHOST: No ghost state for L =  1
GHOST: No ghost state for L =  2
GHOST: No ghost state for L =  3

KBgen: Kleinman-Bylander projectors: 
   l= 0   rc=  1.704034   el= -0.998584   Ekb=  5.327875   kbcos=  0.314897
   l= 1   rc=  1.704034   el= -0.383998   Ekb= -3.785479   kbcos= -0.363289
   l= 2   rc=  1.791422   el=  0.002326   Ekb= -0.971263   kbcos= -0.009325
   l= 3   rc=  1.859892   el=  0.003420   Ekb= -0.399672   kbcos= -0.001232

KBgen: Total number of Kleinman-Bylander projectors:   16
atom: -------------------------------------------------------------------------

atom: SANKEY-TYPE ORBITALS:
atom: Selected multiple-zeta basis: split     

SPLIT: Orbitals with angular momentum L= 0

SPLIT: Basis orbitals for state 2s

SPLIT: PAO cut-off radius determined from an
SPLIT: energy shift=  0.020000 Ry

   izeta = 1
                 lambda =    1.000000
                     rc =    4.191849
                 energy =   -0.980459
                kinetic =    0.881507
    potential(screened) =   -1.861966
       potential(ionic) =   -5.449625

   izeta = 2
                 rmatch =    3.431921
              splitnorm =    0.150000
                 energy =   -0.849396
                kinetic =    1.300036
    potential(screened) =   -2.149433
       potential(ionic) =   -5.962781

SPLIT: Orbitals with angular momentum L= 1

SPLIT: Basis orbitals for state 2p

SPLIT: PAO cut-off radius determined from an
SPLIT: energy shift=  0.020000 Ry

   izeta = 1
                 lambda =    1.000000
                     rc =    4.993604
                 energy =   -0.366127
                kinetic =    2.463190
    potential(screened) =   -2.829316
       potential(ionic) =   -6.291180

   izeta = 2
                 rmatch =    3.518811
              splitnorm =    0.150000
                 energy =   -0.204163
                kinetic =    3.723883
    potential(screened) =   -3.928045
       potential(ionic) =   -7.766545

POLgen: Perturbative polarization orbital with L=  2

POLgen: Polarization orbital for state 2p

   izeta = 1
                     rc =    4.993604
                 energy =    1.232619
                kinetic =    2.527283
    potential(screened) =   -1.294664
       potential(ionic) =   -4.203101
atom: Total number of Sankey-type orbitals: 13

atm_pop: Valence configuration (for local Pseudopot. screening):
 2s( 2.00)                                                            
 2p( 2.00)                                                            
Vna: chval, zval:    4.00000   4.00000

Vna:  Cut-off radius for the neutral-atom potential:   4.993604
comcore: Pseudo-core radius Rcore=  1.791422

atom: _________________________________________________________________________

<basis_specs>
===============================================================================
H                    Z=   1    Mass=  1.0100        Charge= 0.17977+309
Lmxo=0 Lmxkb= 2    BasisType=split      Semic=F
L=0  Nsemic=0  Cnfigmx=1
          i=1  nzeta=2  polorb=1  (1s)
            splnorm:   0.15000    
               vcte:    0.0000    
               rinn:    0.0000    
               qcoe:    0.0000    
               qyuk:    0.0000    
               qwid:   0.10000E-01
                rcs:    0.0000      0.0000    
            lambdas:    1.0000      1.0000    
-------------------------------------------------------------------------------
L=0  Nkbl=1  erefs: 0.17977+309
L=1  Nkbl=1  erefs: 0.17977+309
L=2  Nkbl=1  erefs: 0.17977+309
===============================================================================
</basis_specs>

atom: Called for H                     (Z =   1)

read_vps: Pseudopotential generation method:
read_vps: ATM3      Troullier-Martins                       
Valence charge for ps generation:    1.00000

xc_check: Exchange-correlation functional:
xc_check: Ceperley-Alder
xc_check: WARNING: Pseudopotential generated with GGA PBE functional
V l=0 = -2*Zval/r beyond r=  1.2977
V l=1 = -2*Zval/r beyond r=  1.2815
V l=2 = -2*Zval/r beyond r=  1.2656
All V_l potentials equal beyond r=  1.2977
This should be close to max(r_c) in ps generation
All pots = -2*Zval/r beyond r=  1.2977

VLOCAL1: 99.0% of the norm of Vloc inside     25.776 Ry
VLOCAL1: 99.9% of the norm of Vloc inside     58.745 Ry
atom: Maximum radius for 4*pi*r*r*local-pseudopot. charge    1.52711
atom: Maximum radius for r*vlocal+2*Zval:    1.28155
GHOST: No ghost state for L =  0
GHOST: No ghost state for L =  1
GHOST: No ghost state for L =  2

KBgen: Kleinman-Bylander projectors: 
   l= 0   rc=  1.434438   el= -0.456815   Ekb= -1.960338   kbcos= -0.349997
   l= 1   rc=  1.508111   el=  0.001431   Ekb= -0.423993   kbcos= -0.025386
   l= 2   rc=  1.546352   el=  0.002365   Ekb= -0.376562   kbcos= -0.002012

KBgen: Total number of Kleinman-Bylander projectors:    9
atom: -------------------------------------------------------------------------

atom: SANKEY-TYPE ORBITALS:
atom: Selected multiple-zeta basis: split     

SPLIT: Orbitals with angular momentum L= 0

SPLIT: Basis orbitals for state 1s

SPLIT: PAO cut-off radius determined from an
SPLIT: energy shift=  0.020000 Ry

   izeta = 1
                 lambda =    1.000000
                     rc =    4.828263
                 energy =   -0.438372
                kinetic =    0.921576
    potential(screened) =   -1.359947
       potential(ionic) =   -1.906664

   izeta = 2
                 rmatch =    3.903467
              splitnorm =    0.150000
                 energy =   -0.330751
                kinetic =    1.475177
    potential(screened) =   -1.805928
       potential(ionic) =   -2.389550

POLgen: Perturbative polarization orbital with L=  1

POLgen: Polarization orbital for state 1s

   izeta = 1
                     rc =    4.828263
                 energy =    0.711580
                kinetic =    1.391494
    potential(screened) =   -0.679914
       potential(ionic) =   -1.168115
atom: Total number of Sankey-type orbitals:  5

atm_pop: Valence configuration (for local Pseudopot. screening):
 1s( 1.00)                                                            
Vna: chval, zval:    1.00000   1.00000

Vna:  Cut-off radius for the neutral-atom potential:   4.828263

atom: _________________________________________________________________________

prinput: Basis input ----------------------------------------------------------

PAO.BasisType split     

%block ChemicalSpeciesLabel
    1    6 C                       # Species index, atomic number, species label
    2    1 H                       # Species index, atomic number, species label
%endblock ChemicalSpeciesLabel

%block PAO.Basis                 # Define Basis set
C                     2                    # Species label, number of l-shells
 n=2   0   2                         # n, l, Nzeta 
   4.192      3.432   
   1.000      1.000   
 n=2   1   2 P   1                   # n, l, Nzeta, Polarization, NzetaPol
   4.994      3.519   
   1.000      1.000   
H                     1                    # Species label, number of l-shells
 n=1   0   2 P   1                   # n, l, Nzeta, Polarization, NzetaPol
   4.828      3.903   
   1.000      1.000   
%endblock PAO.Basis

prinput: ----------------------------------------------------------------------

Dumping basis to NetCDF file C.ion.nc
Dumping basis to NetCDF file H.ion.nc
coor:   Atomic-coordinates input format  =     Cartesian coordinates
coor:                                          (in Angstroms)

siesta: Atomic coordinates (Bohr) and species
siesta:      0.00000  18.89727   0.00000  1        1
siesta:      0.00000  24.26409   0.00000  1        2
siesta:      0.00000  26.94751   0.00000  1        3
siesta:      0.00000  32.31433   0.00000  1        4
siesta:      2.32390  20.23897   0.00000  1        5
siesta:      2.32390  22.92239   0.00000  1        6
siesta:      2.32390  28.28921   0.00000  1        7
siesta:      2.32390  30.97262   0.00000  1        8
siesta:      0.00000  16.83747   0.00000  2        9
siesta:      0.00000  34.37413   0.00000  2       10

siesta: System type = chain     

initatomlists: Number of atoms, orbitals, and projectors:     10   114   146

siesta: ******************** Simulation parameters ****************************
siesta:
siesta: The following are some of the parameters of the simulation.
siesta: A complete list of the parameters used, including default values,
siesta: can be found in file out.fdf
siesta:
redata: Spin configuration                          = collinear
redata: Number of spin components                   = 2
redata: Time-Reversal Symmetry                      = T
redata: Spin spiral                                 = F
redata: Long output                                 =   F
redata: Number of Atomic Species                    =        2
redata: Charge density info will appear in .RHO file
redata: Write Mulliken Pop.                         = NO
redata: Matel table size (NRTAB)                    =     1024
redata: Mesh Cutoff                                 =   300.0000 Ry
redata: Net charge of the system                    =     0.0000 |e|
redata: Min. number of SCF Iter                     =        0
redata: Max. number of SCF Iter                     =     1000
redata: SCF convergence failure will abort job
redata: SCF mix quantity                            = Hamiltonian
redata: Mix DM or H after convergence               =   F
redata: Recompute H after scf cycle                 =   F
redata: Mix DM in first SCF step                    =   T
redata: Write Pulay info on disk                    =   F
redata: New DM Occupancy tolerance                  = 0.000000000001
redata: No kicks to SCF
redata: DM Mixing Weight for Kicks                  =     0.5000
redata: Require Harris convergence for SCF          =   F
redata: Harris energy tolerance for SCF             =     0.000100 eV
redata: Require DM convergence for SCF              =   T
redata: DM tolerance for SCF                        =     0.000100
redata: Require EDM convergence for SCF             =   F
redata: EDM tolerance for SCF                       =     0.001000 eV
redata: Require H convergence for SCF               =   T
redata: Hamiltonian tolerance for SCF               =     0.001000 eV
redata: Require (free) Energy convergence for SCF   =   F
redata: (free) Energy tolerance for SCF             =     0.000100 eV
redata: Antiferro initial spin density              =   T
redata: Using Saved Data (generic)                  =   F
redata: Use continuation files for DM               =   F
redata: Neglect nonoverlap interactions             =   F
redata: Method of Calculation                       = Diagonalization
redata: Electronic Temperature                      =   299.9869 K
redata: Fix the spin of the system                  =   F
redata: Dynamics option                             = Single-point calculation
mix.SCF: Pulay mixing                            = Pulay
mix.SCF:    Variant                              = stable
mix.SCF:    History steps                        = 3
mix.SCF:    Linear mixing weight                 =     0.100000
mix.SCF:    Mixing weight                        =     0.100000
mix.SCF:    SVD condition                        = 0.1000E-07
mix.SCF: Spin-component mixing                   all
redata: Save all siesta data in one NC              =   F
redata: ***********************************************************************

%block SCF.Mixers
  Pulay
%endblock SCF.Mixers

%block SCF.Mixer.Pulay
  # Mixing method
  method pulay
  variant stable

  # Mixing options
  weight 0.1000
  weight.linear 0.1000
  history 3
%endblock SCF.Mixer.Pulay

DM_history_depth set to one: no extrapolation allowed by default for geometry relaxation
Size of DM history Fstack: 1
Total number of electrons:    34.000000
Total ionic charge:    34.000000
k-point displ. along   1 input, could be:     0.00    0.50
 Kpoints in:            3 . Kpoints trimmed:            3

siesta: k-grid: Number of k-points =     3
siesta: k-grid: Cutoff (effective) =     4.919 Ang
siesta: k-grid: Supercell and displacements
siesta: k-grid:    4   0   0      0.000
siesta: k-grid:    0   1   0      0.000
siesta: k-grid:    0   0   1      0.000

diag: Algorithm                                     = D&C
diag: Used triangular part                          = Lower
diag: Absolute tolerance                            =  0.100E-15
diag: Orthogonalization factor                      =  0.100E-05
diag: Memory factor                                 =  1.0000

superc: Internal auxiliary supercell:     5 x     1 x     1  =       5
superc: Number of atoms, orbitals, and projectors:     50    570    730


ts: **************************************************************
ts: Save H and S matrices                           =    T
ts: Save DM and EDM matrices                        =    F
ts: Only save the overlap matrix S                  =    F
ts: **************************************************************

************************ Begin: TS CHECKS AND WARNINGS ************************
************************ End: TS CHECKS AND WARNINGS **************************


                     ====================================
                        Single-point calculation
                     ====================================

superc: Internal auxiliary supercell:     5 x     1 x     1  =       5
superc: Number of atoms, orbitals, and projectors:     50    570    730

outcell: Unit cell vectors (Ang):
        2.459512    0.000000    0.000000
        0.000000   28.520000    0.000000
        0.000000    0.000000   14.200000

outcell: Cell vector modules (Ang)   :    2.459512   28.520000   14.200000
outcell: Cell angles (23,13,12) (deg):     90.0000     90.0000     90.0000
outcell: Cell volume (Ang**3)        :    996.0631
<dSpData1D:S at geom step 0
  <sparsity:sparsity for geom step 0
    nrows_g=114 nrows=114 sparsity=3.2236 nnzs=41894, refcount: 7>
  <dData1D:(new from dSpData1D) n=41894, refcount: 1>
refcount: 1>
new_DM -- step:     1
Initializing Density Matrix...
DM filled with atomic data:
<dSpData2D:DM initialized from atoms
  <sparsity:sparsity for geom step 0
    nrows_g=114 nrows=114 sparsity=3.2236 nnzs=41894, refcount: 8>
  <dData2D:DM n=41894 m=2, refcount: 1>
refcount: 1>
     spin moment: S , {S} =    0.00000       0.0       0.0   0.00000
No. of atoms with KB's overlaping orbs in proc 0. Max # of overlaps:      30     174
New grid distribution:   1
           1       1:   15    1:  150    1:   75

InitMesh: MESH =    30 x   300 x   150 =     1350000
InitMesh: (bp) =    15 x   150 x    75 =      168750
InitMesh: Mesh cutoff (required, used) =   300.000   305.805 Ry
ExtMesh (bp) on 0 =    83 x   206 x   131 =     2239838
PhiOnMesh: Number of (b)points on node 0 =               168750
PhiOnMesh: nlist on node 0 =              1248577

efield: External electric field =    0.000000    0.050000    0.000000 eV/Ang/e

efield: WARNING!
efield: There is no slab-dipole correction [Slab.DipoleCorrection none] although an external efield is present.
efield: For correct physics Slab.DipoleCorrection should be .true.
efield: This is only for backwards compatibility!


stepf: Fermi-Dirac step function

siesta: Program's energy decomposition (eV):
siesta: Ebs     =      -369.311648
siesta: Eions   =      2082.267704
siesta: Ena     =       444.972223
siesta: Ekin    =       928.547221
siesta: Enl     =      -105.990538
siesta: Eso     =         0.000000
siesta: Edftu   =         0.000000
siesta: DEna    =       -44.284732
siesta: DUscf   =         4.497646
siesta: DUext   =        -0.006615
siesta: Exc     =      -467.168416
siesta: eta*DQ  =         0.000000
siesta: Emadel  =         0.000000
siesta: Emeta   =         0.000000
siesta: Emolmec =         0.000000
siesta: Ekinion =         0.000000
siesta: Eharris =     -1315.757945
siesta: Etot    =     -1321.700914
siesta: FreeEng =     -1321.700914

        iscf     Eharris(eV)        E_KS(eV)     FreeEng(eV)     dDmax    Ef(eV) dHmax(eV)
   scf:    1    -1315.757945    -1321.700914    -1321.700914  0.969623 -5.174793  6.864352
     spin moment: S , {S} =   -0.00000       0.0       0.0  -0.00000
timer: Routine,Calls,Time,% = IterSCF        1       2.804  49.73
   scf:    2    -1322.601610    -1322.157345    -1322.157345  0.015521 -4.765216  5.656489
     spin moment: S , {S} =   -0.00000       0.0       0.0  -0.00000
   scf:    3    -1324.391037    -1323.417103    -1323.417103  0.072560 -3.588666  1.504280
     spin moment: S , {S} =   -0.00000       0.0       0.0  -0.00000
   scf:    4    -1323.559736    -1323.491770    -1323.491770  0.007818 -3.661105  1.161657
     spin moment: S , {S} =   -0.00000       0.0       0.0  -0.00000
   scf:    5    -1323.699088    -1323.594532    -1323.594532  0.009215 -3.699149  0.709232
     spin moment: S , {S} =   -0.00000       0.0       0.0  -0.00000
   scf:    6    -1323.666209    -1323.629912    -1323.629912  0.004132 -3.697335  0.476580
     spin moment: S , {S} =    0.00000       0.0       0.0   0.00000
   scf:    7    -1323.710283    -1323.668411    -1323.668422  0.007358 -3.705949  0.157642
     spin moment: S , {S} =   -0.00000       0.0       0.0  -0.00000
   scf:    8    -1323.670760    -1323.669582    -1323.669594  0.000449 -3.713615  0.128836
     spin moment: S , {S} =   -0.00000       0.0       0.0  -0.00000
   scf:    9    -1323.674602    -1323.672083    -1323.672094  0.001598 -3.741014  0.065629
     spin moment: S , {S} =   -0.00000       0.0       0.0  -0.00000
   scf:   10    -1323.672532    -1323.672308    -1323.672320  0.000322 -3.744539  0.041088
     spin moment: S , {S} =   -0.00000       0.0       0.0  -0.00000
   scf:   11    -1323.672618    -1323.672463    -1323.672475  0.000157 -3.744664  0.034046
     spin moment: S , {S} =   -0.00000       0.0       0.0  -0.00000
   scf:   12    -1323.673138    -1323.672797    -1323.672811  0.000419 -3.741552  0.025185
     spin moment: S , {S} =   -0.00000       0.0       0.0  -0.00000
   scf:   13    -1323.673033    -1323.672913    -1323.672927  0.000190 -3.740894  0.021036
     spin moment: S , {S} =   -0.00000       0.0       0.0  -0.00000
   scf:   14    -1323.673224    -1323.673062    -1323.673077  0.000328 -3.741026  0.013972
     spin moment: S , {S} =   -0.00000       0.0       0.0  -0.00000
   scf:   15    -1323.673096    -1323.673079    -1323.673093  0.000060 -3.741688  0.012372
     spin moment: S , {S} =   -0.00000       0.0       0.0  -0.00000
   scf:   16    -1323.673131    -1323.673104    -1323.673119  0.000141 -3.743427  0.008604
     spin moment: S , {S} =   -0.00000       0.0       0.0  -0.00000
   scf:   17    -1323.673114    -1323.673109    -1323.673123  0.000045 -3.743655  0.006255
     spin moment: S , {S} =   -0.00000       0.0       0.0  -0.00000
   scf:   18    -1323.673116    -1323.673112    -1323.673126  0.000023 -3.743516  0.005432
     spin moment: S , {S} =   -0.00000       0.0       0.0  -0.00000
   scf:   19    -1323.673124    -1323.673118    -1323.673132  0.000052 -3.743002  0.004385
     spin moment: S , {S} =   -0.00000       0.0       0.0  -0.00000
   scf:   20    -1323.673125    -1323.673122    -1323.673136  0.000032 -3.742851  0.003829
     spin moment: S , {S} =   -0.00000       0.0       0.0  -0.00000
   scf:   21    -1323.673133    -1323.673127    -1323.673141  0.000061 -3.742921  0.002609
     spin moment: S , {S} =   -0.00000       0.0       0.0  -0.00000
   scf:   22    -1323.673130    -1323.673128    -1323.673142  0.000023 -3.743045  0.002201
     spin moment: S , {S} =   -0.00000       0.0       0.0  -0.00000
   scf:   23    -1323.673131    -1323.673130    -1323.673143  0.000036 -3.743272  0.001047
     spin moment: S , {S} =   -0.00000       0.0       0.0  -0.00000
   scf:   24    -1323.673130    -1323.673130    -1323.673143  0.000005 -3.743256  0.000843
     spin moment: S , {S} =   -0.00000       0.0       0.0  -0.00000

SCF Convergence by DM+H criterion
max |DM_out - DM_in|         :     0.0000051987
max |H_out - H_in|      (eV) :     0.0008434866
SCF cycle converged after 24 iterations

Using DM_out to compute the final energy and forces
No. of atoms with KB's overlaping orbs in proc 0. Max # of overlaps:      30     174

siesta: E_KS(eV) =            -1323.6731

siesta: E_KS - E_eggbox =     -1323.6731
     spin moment: S , {S} =   -0.00000       0.0       0.0  -0.00000

siesta: Atomic forces (eV/Ang):
----------------------------------------
   Tot   -0.000000    0.004842   -0.000000
----------------------------------------
   Max    1.437279
   Res    0.574618    sqrt( Sum f_i^2 / 3N )
----------------------------------------
   Max    1.437279    constrained

Stress tensor Voigt[x,y,z,yz,xz,xy] (kbar):       -2.07       -4.84        0.01       -0.00        0.00        0.00
(Free)E + p*V (eV/cell)    -1322.2425
Target enthalpy (eV/cell)    -1323.6731

siesta: Program's energy decomposition (eV):
siesta: Ebs     =      -424.109698
siesta: Eions   =      2082.267704
siesta: Ena     =       444.972223
siesta: Ekin    =       899.667374
siesta: Enl     =      -100.234348
siesta: Eso     =         0.000000
siesta: Edftu   =         0.000000
siesta: DEna    =       -26.881402
siesta: DUscf   =         2.616432
siesta: DUext   =        -0.002545
siesta: Exc     =      -461.543160
siesta: eta*DQ  =         0.000000
siesta: Emadel  =         0.000000
siesta: Emeta   =         0.000000
siesta: Emolmec =         0.000000
siesta: Ekinion =         0.000000
siesta: Eharris =     -1323.673130
siesta: Etot    =     -1323.673130
siesta: FreeEng =     -1323.673143

siesta: Final energy (eV):
siesta:  Band Struct. =    -424.109698
siesta:       Kinetic =     899.667374
siesta:       Hartree =    6721.646775
siesta:       Edftu   =       0.000000
siesta:       Eso     =       0.000000
siesta:    Ext. field =      -0.002545
siesta:   Exch.-corr. =    -461.543160
siesta:  Ion-electron =  -14239.373479
siesta:       Ion-ion =    5755.931905
siesta:       Ekinion =       0.000000
siesta:         Total =   -1323.673130
siesta:         Fermi =      -3.743256

siesta: Atomic forces (eV/Ang):
siesta:      1   -0.000000    1.395454    0.000000
siesta:      2   -0.000000   -0.504015   -0.000000
siesta:      3   -0.000000    0.506141    0.000000
siesta:      4   -0.000000   -1.383194    0.000000
siesta:      5    0.000000   -1.437279   -0.000000
siesta:      6    0.000000    0.583504    0.000000
siesta:      7    0.000000   -0.583536   -0.000000
siesta:      8    0.000000    1.430485   -0.000000
siesta:      9    0.000000   -0.610380   -0.000000
siesta:     10   -0.000000    0.607663   -0.000000
siesta: ----------------------------------------
siesta:    Tot   -0.000000    0.004842   -0.000000

siesta: Stress tensor (static) (eV/Ang**3):
siesta:    -0.001294    0.000000   -0.000000
siesta:     0.000000   -0.003021   -0.000000
siesta:     0.000000   -0.000000    0.000007

siesta: Cell volume =        996.063069 Ang**3

siesta: Pressure (static):
siesta:                Solid            Molecule  Units
siesta:           0.00001564          0.00000474  Ry/Bohr**3
siesta:           0.00143629          0.00043502  eV/Ang**3
siesta:           2.30120942          0.69697960  kBar
(Free)E+ p_basis*V_orbitals  =       -1320.711194
(Free)Eharris+ p_basis*V_orbitals  =       -1320.711194
     spin moment: S , {S} =   -0.00000       0.0       0.0  -0.00000

siesta: Electric dipole (a.u.)  =    0.000000    0.096181   -0.000000
siesta: Electric dipole (Debye) =    0.000000    0.244468   -0.000000

dhscf: Vacuum level (max, mean) =    0.517773   -0.110410 eV

cite: Please see "siesta.bib" for an exhaustive BiBTeX file.
cite: Please clearly indicate Siesta version in published work: 4.1.5
cite: This calculation has made use of the following articles
cite: which are encouraged to be cited in a published work.
        Primary SIESTA paper
          DOI: www.doi.org/10.1088/0953-8984/14/11/302


timer: Elapsed wall time (sec) =      23.494
timer: CPU execution times (sec):

Routine            Calls   Time/call    Tot.time        %
siesta                 1      57.436      57.436   100.00
Setup                  1       1.062       1.062     1.85
bands                  1       0.000       0.000     0.00
KSV_init               1       0.000       0.000     0.00
IterGeom               1      55.885      55.885    97.30
state_init             1       0.137       0.137     0.24
hsparse                1       0.002       0.002     0.00
overlap                1       0.131       0.131     0.23
Setup_H0               1       1.634       1.634     2.84
naefs                  2       0.000       0.000     0.00
MolMec                 2       0.000       0.000     0.00
kinefsm                2       0.067       0.134     0.23
nlefsm                 2       0.428       0.857     1.49
DHSCF_Init             1       0.699       0.699     1.22
DHSCF1                 1       0.021       0.021     0.04
INITMESH               1       0.000       0.000     0.00
DHSCF2                 1       0.678       0.678     1.18
REMESH                 1       0.126       0.126     0.22
REORD                124       0.002       0.227     0.39
PHION                  1       0.425       0.425     0.74
COMM_BSC             218       0.001       0.281     0.49
POISON                28       0.043       1.191     2.07
fft                   56       0.016       0.876     1.52
IterSCF               24       2.183      52.386    91.21
setup_H               25       1.645      41.125    71.60
DHSCF                 27       1.599      43.167    75.16
DHSCF3                27       1.564      42.225    73.52
rhoofd                27       1.061      28.647    49.88
XC                    27       0.052       1.393     2.43
GXC-CellXC            27       0.038       1.034     1.80
cellXC                27       0.038       1.034     1.80
vmat                  26       0.281       7.298    12.71
compute_dm            24       0.466      11.195    19.49
diagon                24       0.465      11.155    19.42
c-eigval             144       0.022       3.105     5.41
c-buildHS            144       0.006       0.806     1.40
cdiag                288       0.023       6.613    11.51
cdiag1               288       0.001       0.427     0.74
cdiag2               288       0.003       0.913     1.59
cdiag3               288       0.018       5.192     9.04
c-eigvec             144       0.036       5.203     9.06
cdiag4               144       0.000       0.031     0.05
c-buildD             144       0.019       2.803     4.88
MIXER                 23       0.001       0.017     0.03
PostSCF                1       1.727       1.727     3.01
DHSCF4                 1       0.942       0.942     1.64
dfscf                  1       0.844       0.844     1.47
overfsm                1       0.007       0.007     0.01
state_analysis         1       0.000       0.000     0.00
siesta_move            1       0.000       0.000     0.00
Analysis               1       0.487       0.487     0.85
siesta_analysis        1       0.487       0.487     0.85
optical                1       0.000       0.000     0.00
  
>> End of run:  21-JUN-2024  19:02:27
Job completed
