Siesta Version  : 4.1.5
Architecture    : unknown
Compiler version: GNU Fortran (conda-forge gcc 12.3.0-5) 12.3.0
Compiler flags  : x86_64-conda-linux-gnu-gfortran -march=nocona -mtune=haswell -ftree-vectorizee -fPIC -fstack-protector-strong -fno-plt -O2 -ffunction-sections -pipe  -fallow-argument-mismatch
PP flags        : -DFC_HAVE_ABORT -DCDF -DNCDF -DNCDF_4
Libraries       : libncdf.a libfdict.a -llapack -lblas -lnetcdff -lnetcdf -lhdf5_hl -lhdf5 -lz
SERIAL version
NetCDF support
NetCDF-4 support

* Running in serial mode
>> Start of run:  21-JUN-2024  19:06:54

                           ***********************       
                           *  WELCOME TO SIESTA  *       
                           ***********************       

reinit: Reading from nanoribbon_graphene6.fdf

reinit: -----------------------------------------------------------------------
reinit: System Name: 
reinit: -----------------------------------------------------------------------
reinit: System Label: siesta
reinit: -----------------------------------------------------------------------

initatom: Reading input for the pseudopotentials and atomic orbitals ----------
Species number:   1 Atomic number:    6 Label: C
Species number:   2 Atomic number:    1 Label: H

Ground state valence configuration:   2s02  2p02
Reading pseudopotential information in formatted form from C.psf

Valence configuration for pseudopotential generation:
2s( 2.00) rc: 1.54
2p( 2.00) rc: 1.54
3d( 0.00) rc: 1.54
4f( 0.00) rc: 1.54
Ground state valence configuration:   1s01
Reading pseudopotential information in formatted form from H.psf

Valence configuration for pseudopotential generation:
1s( 1.00) rc: 1.31
2p( 0.00) rc: 1.31
3d( 0.00) rc: 0.37
4f( 0.00) rc: 1.31
For C, standard SIESTA heuristics set lmxkb to 3
 (one more than the basis l, including polarization orbitals).
Use PS.lmax or PS.KBprojectors blocks to override.
For H, standard SIESTA heuristics set lmxkb to 2
 (one more than the basis l, including polarization orbitals).
Use PS.lmax or PS.KBprojectors blocks to override.

<basis_specs>
===============================================================================
C                    Z=   6    Mass=  12.010        Charge= 0.17977+309
Lmxo=1 Lmxkb= 3    BasisType=split      Semic=F
L=0  Nsemic=0  Cnfigmx=2
          i=1  nzeta=2  polorb=0  (2s)
            splnorm:   0.15000    
               vcte:    0.0000    
               rinn:    0.0000    
               qcoe:    0.0000    
               qyuk:    0.0000    
               qwid:   0.10000E-01
                rcs:    0.0000      0.0000    
            lambdas:    1.0000      1.0000    
L=1  Nsemic=0  Cnfigmx=2
          i=1  nzeta=2  polorb=1  (2p)
            splnorm:   0.15000    
               vcte:    0.0000    
               rinn:    0.0000    
               qcoe:    0.0000    
               qyuk:    0.0000    
               qwid:   0.10000E-01
                rcs:    0.0000      0.0000    
            lambdas:    1.0000      1.0000    
-------------------------------------------------------------------------------
L=0  Nkbl=1  erefs: 0.17977+309
L=1  Nkbl=1  erefs: 0.17977+309
L=2  Nkbl=1  erefs: 0.17977+309
L=3  Nkbl=1  erefs: 0.17977+309
===============================================================================
</basis_specs>

atom: Called for C                     (Z =   6)

read_vps: Pseudopotential generation method:
read_vps: ATM3      Troullier-Martins                       
Valence charge for ps generation:    4.00000

read_vps: Pseudopotential includes a core correction:
read_vps: Pseudo-core for xc-correction

xc_check: Exchange-correlation functional:
xc_check: Ceperley-Alder
xc_check: WARNING: Pseudopotential generated with GGA PBE functional
V l=0 = -2*Zval/r beyond r=  1.5227
V l=1 = -2*Zval/r beyond r=  1.5227
V l=2 = -2*Zval/r beyond r=  1.5227
V l=3 = -2*Zval/r beyond r=  1.5038
All V_l potentials equal beyond r=  1.5227
This should be close to max(r_c) in ps generation
All pots = -2*Zval/r beyond r=  1.5227

VLOCAL1: 99.0% of the norm of Vloc inside     18.722 Ry
VLOCAL1: 99.9% of the norm of Vloc inside     42.668 Ry
atom: Maximum radius for 4*pi*r*r*local-pseudopot. charge    1.83678
atom: Maximum radius for r*vlocal+2*Zval:    1.58088
GHOST: No ghost state for L =  0
GHOST: No ghost state for L =  1
GHOST: No ghost state for L =  2
GHOST: No ghost state for L =  3

KBgen: Kleinman-Bylander projectors: 
   l= 0   rc=  1.704034   el= -0.998584   Ekb=  5.327875   kbcos=  0.314897
   l= 1   rc=  1.704034   el= -0.383998   Ekb= -3.785479   kbcos= -0.363289
   l= 2   rc=  1.791422   el=  0.002326   Ekb= -0.971263   kbcos= -0.009325
   l= 3   rc=  1.859892   el=  0.003420   Ekb= -0.399672   kbcos= -0.001232

KBgen: Total number of Kleinman-Bylander projectors:   16
atom: -------------------------------------------------------------------------

atom: SANKEY-TYPE ORBITALS:
atom: Selected multiple-zeta basis: split     

SPLIT: Orbitals with angular momentum L= 0

SPLIT: Basis orbitals for state 2s

SPLIT: PAO cut-off radius determined from an
SPLIT: energy shift=  0.020000 Ry

   izeta = 1
                 lambda =    1.000000
                     rc =    4.191849
                 energy =   -0.980459
                kinetic =    0.881507
    potential(screened) =   -1.861966
       potential(ionic) =   -5.449625

   izeta = 2
                 rmatch =    3.431921
              splitnorm =    0.150000
                 energy =   -0.849396
                kinetic =    1.300036
    potential(screened) =   -2.149433
       potential(ionic) =   -5.962781

SPLIT: Orbitals with angular momentum L= 1

SPLIT: Basis orbitals for state 2p

SPLIT: PAO cut-off radius determined from an
SPLIT: energy shift=  0.020000 Ry

   izeta = 1
                 lambda =    1.000000
                     rc =    4.993604
                 energy =   -0.366127
                kinetic =    2.463190
    potential(screened) =   -2.829316
       potential(ionic) =   -6.291180

   izeta = 2
                 rmatch =    3.518811
              splitnorm =    0.150000
                 energy =   -0.204163
                kinetic =    3.723883
    potential(screened) =   -3.928045
       potential(ionic) =   -7.766545

POLgen: Perturbative polarization orbital with L=  2

POLgen: Polarization orbital for state 2p

   izeta = 1
                     rc =    4.993604
                 energy =    1.232619
                kinetic =    2.527283
    potential(screened) =   -1.294664
       potential(ionic) =   -4.203101
atom: Total number of Sankey-type orbitals: 13

atm_pop: Valence configuration (for local Pseudopot. screening):
 2s( 2.00)                                                            
 2p( 2.00)                                                            
Vna: chval, zval:    4.00000   4.00000

Vna:  Cut-off radius for the neutral-atom potential:   4.993604
comcore: Pseudo-core radius Rcore=  1.791422

atom: _________________________________________________________________________

<basis_specs>
===============================================================================
H                    Z=   1    Mass=  1.0100        Charge= 0.17977+309
Lmxo=0 Lmxkb= 2    BasisType=split      Semic=F
L=0  Nsemic=0  Cnfigmx=1
          i=1  nzeta=2  polorb=1  (1s)
            splnorm:   0.15000    
               vcte:    0.0000    
               rinn:    0.0000    
               qcoe:    0.0000    
               qyuk:    0.0000    
               qwid:   0.10000E-01
                rcs:    0.0000      0.0000    
            lambdas:    1.0000      1.0000    
-------------------------------------------------------------------------------
L=0  Nkbl=1  erefs: 0.17977+309
L=1  Nkbl=1  erefs: 0.17977+309
L=2  Nkbl=1  erefs: 0.17977+309
===============================================================================
</basis_specs>

atom: Called for H                     (Z =   1)

read_vps: Pseudopotential generation method:
read_vps: ATM3      Troullier-Martins                       
Valence charge for ps generation:    1.00000

xc_check: Exchange-correlation functional:
xc_check: Ceperley-Alder
xc_check: WARNING: Pseudopotential generated with GGA PBE functional
V l=0 = -2*Zval/r beyond r=  1.2977
V l=1 = -2*Zval/r beyond r=  1.2815
V l=2 = -2*Zval/r beyond r=  1.2656
All V_l potentials equal beyond r=  1.2977
This should be close to max(r_c) in ps generation
All pots = -2*Zval/r beyond r=  1.2977

VLOCAL1: 99.0% of the norm of Vloc inside     25.776 Ry
VLOCAL1: 99.9% of the norm of Vloc inside     58.745 Ry
atom: Maximum radius for 4*pi*r*r*local-pseudopot. charge    1.52711
atom: Maximum radius for r*vlocal+2*Zval:    1.28155
GHOST: No ghost state for L =  0
GHOST: No ghost state for L =  1
GHOST: No ghost state for L =  2

KBgen: Kleinman-Bylander projectors: 
   l= 0   rc=  1.434438   el= -0.456815   Ekb= -1.960338   kbcos= -0.349997
   l= 1   rc=  1.508111   el=  0.001431   Ekb= -0.423993   kbcos= -0.025386
   l= 2   rc=  1.546352   el=  0.002365   Ekb= -0.376562   kbcos= -0.002012

KBgen: Total number of Kleinman-Bylander projectors:    9
atom: -------------------------------------------------------------------------

atom: SANKEY-TYPE ORBITALS:
atom: Selected multiple-zeta basis: split     

SPLIT: Orbitals with angular momentum L= 0

SPLIT: Basis orbitals for state 1s

SPLIT: PAO cut-off radius determined from an
SPLIT: energy shift=  0.020000 Ry

   izeta = 1
                 lambda =    1.000000
                     rc =    4.828263
                 energy =   -0.438372
                kinetic =    0.921576
    potential(screened) =   -1.359947
       potential(ionic) =   -1.906664

   izeta = 2
                 rmatch =    3.903467
              splitnorm =    0.150000
                 energy =   -0.330751
                kinetic =    1.475177
    potential(screened) =   -1.805928
       potential(ionic) =   -2.389550

POLgen: Perturbative polarization orbital with L=  1

POLgen: Polarization orbital for state 1s

   izeta = 1
                     rc =    4.828263
                 energy =    0.711580
                kinetic =    1.391494
    potential(screened) =   -0.679914
       potential(ionic) =   -1.168115
atom: Total number of Sankey-type orbitals:  5

atm_pop: Valence configuration (for local Pseudopot. screening):
 1s( 1.00)                                                            
Vna: chval, zval:    1.00000   1.00000

Vna:  Cut-off radius for the neutral-atom potential:   4.828263

atom: _________________________________________________________________________

prinput: Basis input ----------------------------------------------------------

PAO.BasisType split     

%block ChemicalSpeciesLabel
    1    6 C                       # Species index, atomic number, species label
    2    1 H                       # Species index, atomic number, species label
%endblock ChemicalSpeciesLabel

%block PAO.Basis                 # Define Basis set
C                     2                    # Species label, number of l-shells
 n=2   0   2                         # n, l, Nzeta 
   4.192      3.432   
   1.000      1.000   
 n=2   1   2 P   1                   # n, l, Nzeta, Polarization, NzetaPol
   4.994      3.519   
   1.000      1.000   
H                     1                    # Species label, number of l-shells
 n=1   0   2 P   1                   # n, l, Nzeta, Polarization, NzetaPol
   4.828      3.903   
   1.000      1.000   
%endblock PAO.Basis

prinput: ----------------------------------------------------------------------

Dumping basis to NetCDF file C.ion.nc
Dumping basis to NetCDF file H.ion.nc
coor:   Atomic-coordinates input format  =     Cartesian coordinates
coor:                                          (in Angstroms)

siesta: Atomic coordinates (Bohr) and species
siesta:      0.00000  18.89727   0.00000  1        1
siesta:      0.00000  24.26409   0.00000  1        2
siesta:      0.00000  26.94751   0.00000  1        3
siesta:      0.00000  32.31433   0.00000  1        4
siesta:      2.32390  20.23897   0.00000  1        5
siesta:      2.32390  22.92239   0.00000  1        6
siesta:      2.32390  28.28921   0.00000  1        7
siesta:      2.32390  30.97262   0.00000  1        8
siesta:      0.00000  16.83747   0.00000  2        9
siesta:      0.00000  34.37413   0.00000  2       10

siesta: System type = chain     

initatomlists: Number of atoms, orbitals, and projectors:     10   114   146

siesta: ******************** Simulation parameters ****************************
siesta:
siesta: The following are some of the parameters of the simulation.
siesta: A complete list of the parameters used, including default values,
siesta: can be found in file out.fdf
siesta:
redata: Spin configuration                          = collinear
redata: Number of spin components                   = 2
redata: Time-Reversal Symmetry                      = T
redata: Spin spiral                                 = F
redata: Long output                                 =   F
redata: Number of Atomic Species                    =        2
redata: Charge density info will appear in .RHO file
redata: Write Mulliken Pop.                         = NO
redata: Matel table size (NRTAB)                    =     1024
redata: Mesh Cutoff                                 =   300.0000 Ry
redata: Net charge of the system                    =     0.0000 |e|
redata: Min. number of SCF Iter                     =        0
redata: Max. number of SCF Iter                     =     1000
redata: SCF convergence failure will abort job
redata: SCF mix quantity                            = Hamiltonian
redata: Mix DM or H after convergence               =   F
redata: Recompute H after scf cycle                 =   F
redata: Mix DM in first SCF step                    =   T
redata: Write Pulay info on disk                    =   F
redata: New DM Occupancy tolerance                  = 0.000000000001
redata: No kicks to SCF
redata: DM Mixing Weight for Kicks                  =     0.5000
redata: Require Harris convergence for SCF          =   F
redata: Harris energy tolerance for SCF             =     0.000100 eV
redata: Require DM convergence for SCF              =   T
redata: DM tolerance for SCF                        =     0.000100
redata: Require EDM convergence for SCF             =   F
redata: EDM tolerance for SCF                       =     0.001000 eV
redata: Require H convergence for SCF               =   T
redata: Hamiltonian tolerance for SCF               =     0.001000 eV
redata: Require (free) Energy convergence for SCF   =   F
redata: (free) Energy tolerance for SCF             =     0.000100 eV
redata: Antiferro initial spin density              =   T
redata: Using Saved Data (generic)                  =   F
redata: Use continuation files for DM               =   F
redata: Neglect nonoverlap interactions             =   F
redata: Method of Calculation                       = Diagonalization
redata: Electronic Temperature                      =   299.9869 K
redata: Fix the spin of the system                  =   F
redata: Dynamics option                             = Single-point calculation
mix.SCF: Pulay mixing                            = Pulay
mix.SCF:    Variant                              = stable
mix.SCF:    History steps                        = 3
mix.SCF:    Linear mixing weight                 =     0.100000
mix.SCF:    Mixing weight                        =     0.100000
mix.SCF:    SVD condition                        = 0.1000E-07
mix.SCF: Spin-component mixing                   all
redata: Save all siesta data in one NC              =   F
redata: ***********************************************************************

%block SCF.Mixers
  Pulay
%endblock SCF.Mixers

%block SCF.Mixer.Pulay
  # Mixing method
  method pulay
  variant stable

  # Mixing options
  weight 0.1000
  weight.linear 0.1000
  history 3
%endblock SCF.Mixer.Pulay

DM_history_depth set to one: no extrapolation allowed by default for geometry relaxation
Size of DM history Fstack: 1
Total number of electrons:    34.000000
Total ionic charge:    34.000000
k-point displ. along   1 input, could be:     0.00    0.50
 Kpoints in:            3 . Kpoints trimmed:            3

siesta: k-grid: Number of k-points =     3
siesta: k-grid: Cutoff (effective) =     4.919 Ang
siesta: k-grid: Supercell and displacements
siesta: k-grid:    4   0   0      0.000
siesta: k-grid:    0   1   0      0.000
siesta: k-grid:    0   0   1      0.000

diag: Algorithm                                     = D&C
diag: Used triangular part                          = Lower
diag: Absolute tolerance                            =  0.100E-15
diag: Orthogonalization factor                      =  0.100E-05
diag: Memory factor                                 =  1.0000

superc: Internal auxiliary supercell:     5 x     1 x     1  =       5
superc: Number of atoms, orbitals, and projectors:     50    570    730


ts: **************************************************************
ts: Save H and S matrices                           =    T
ts: Save DM and EDM matrices                        =    F
ts: Only save the overlap matrix S                  =    F
ts: **************************************************************

************************ Begin: TS CHECKS AND WARNINGS ************************
************************ End: TS CHECKS AND WARNINGS **************************


                     ====================================
                        Single-point calculation
                     ====================================

superc: Internal auxiliary supercell:     5 x     1 x     1  =       5
superc: Number of atoms, orbitals, and projectors:     50    570    730

outcell: Unit cell vectors (Ang):
        2.459512    0.000000    0.000000
        0.000000   28.520000    0.000000
        0.000000    0.000000   14.200000

outcell: Cell vector modules (Ang)   :    2.459512   28.520000   14.200000
outcell: Cell angles (23,13,12) (deg):     90.0000     90.0000     90.0000
outcell: Cell volume (Ang**3)        :    996.0631
<dSpData1D:S at geom step 0
  <sparsity:sparsity for geom step 0
    nrows_g=114 nrows=114 sparsity=3.2236 nnzs=41894, refcount: 7>
  <dData1D:(new from dSpData1D) n=41894, refcount: 1>
refcount: 1>
new_DM -- step:     1
Initializing Density Matrix...
DM filled with atomic data:
<dSpData2D:DM initialized from atoms
  <sparsity:sparsity for geom step 0
    nrows_g=114 nrows=114 sparsity=3.2236 nnzs=41894, refcount: 8>
  <dData2D:DM n=41894 m=2, refcount: 1>
refcount: 1>
     spin moment: S , {S} =    0.00000       0.0       0.0   0.00000
No. of atoms with KB's overlaping orbs in proc 0. Max # of overlaps:      30     174
New grid distribution:   1
           1       1:   15    1:  150    1:   75

InitMesh: MESH =    30 x   300 x   150 =     1350000
InitMesh: (bp) =    15 x   150 x    75 =      168750
InitMesh: Mesh cutoff (required, used) =   300.000   305.805 Ry
ExtMesh (bp) on 0 =    83 x   206 x   131 =     2239838
PhiOnMesh: Number of (b)points on node 0 =               168750
PhiOnMesh: nlist on node 0 =              1248577

efield: External electric field =    0.000000    0.499999    0.000000 eV/Ang/e

efield: WARNING!
efield: There is no slab-dipole correction [Slab.DipoleCorrection none] although an external efield is present.
efield: For correct physics Slab.DipoleCorrection should be .true.
efield: This is only for backwards compatibility!


stepf: Fermi-Dirac step function

siesta: Program's energy decomposition (eV):
siesta: Ebs     =      -362.002467
siesta: Eions   =      2082.267704
siesta: Ena     =       444.972223
siesta: Ekin    =       928.697339
siesta: Enl     =      -105.880134
siesta: Eso     =         0.000000
siesta: Edftu   =         0.000000
siesta: DEna    =       -44.087170
siesta: DUscf   =         9.428717
siesta: DUext   =        -1.616409
siesta: Exc     =      -467.196832
siesta: eta*DQ  =         0.000000
siesta: Emadel  =         0.000000
siesta: Emeta   =         0.000000
siesta: Emolmec =         0.000000
siesta: Ekinion =         0.000000
siesta: Eharris =     -1304.026371
siesta: Etot    =     -1317.949971
siesta: FreeEng =     -1317.950000

        iscf     Eharris(eV)        E_KS(eV)     FreeEng(eV)     dDmax    Ef(eV) dHmax(eV)
   scf:    1    -1304.026371    -1317.949971    -1317.950000  0.970676 -5.538303 18.059605
     spin moment: S , {S} =    0.00000       0.0       0.0   0.00000
timer: Routine,Calls,Time,% = IterSCF        1       2.724  49.14
   scf:    2    -1322.953670    -1322.267813    -1322.267813  0.146750 -5.334538  5.552263
     spin moment: S , {S} =    0.00000       0.0       0.0   0.00000
   scf:    3    -1322.975599    -1322.626066    -1322.626066  0.014388 -4.934645  4.544906
     spin moment: S , {S} =    0.00000       0.0       0.0   0.00000
   scf:    4    -1324.380180    -1323.593706    -1323.594095  0.065707 -3.583365  1.134215
     spin moment: S , {S} =   -0.00000       0.0       0.0  -0.00000
   scf:    5    -1323.673934    -1323.634997    -1323.636262  0.005499 -3.663802  1.214338
     spin moment: S , {S} =    0.00000       0.0       0.0   0.00000
   scf:    6    -1323.712027    -1323.679569    -1323.683126  0.017799 -3.681526  1.477049
     spin moment: S , {S} =    0.00000       0.0       0.0   0.00000
   scf:    7    -1323.613490    -1323.648360    -1323.652479  0.007384 -3.752221  1.871038
     spin moment: S , {S} =   -0.00000       0.0       0.0  -0.00000
   scf:    8    -1323.724867    -1323.694015    -1323.696820  0.014623 -3.634573  1.129191
     spin moment: S , {S} =   -0.00000       0.0       0.0  -0.00000
   scf:    9    -1323.703603    -1323.699162    -1323.702355  0.003601 -3.674568  1.232181
     spin moment: S , {S} =   -0.00000       0.0       0.0  -0.00000
   scf:   10    -1323.851505    -1323.774309    -1323.779089  0.020109 -3.737219  1.066529
     spin moment: S , {S} =   -0.00000       0.0       0.0  -0.00000
   scf:   11    -1323.743365    -1323.788019    -1323.790399  0.028155 -3.643145  1.088391
     spin moment: S , {S} =   -0.00000       0.0       0.0  -0.00000
   scf:   12    -1323.825042    -1323.811845    -1323.815931  0.016428 -3.730869  0.313509
     spin moment: S , {S} =   -0.00000       0.0       0.0  -0.00000
   scf:   13    -1323.813263    -1323.813125    -1323.817670  0.005624 -3.767291  0.122667
     spin moment: S , {S} =   -0.00000       0.0       0.0  -0.00000
   scf:   14    -1323.810048    -1323.812497    -1323.816663  0.005017 -3.780320  0.275382
     spin moment: S , {S} =   -0.00000       0.0       0.0  -0.00000
   scf:   15    -1323.813303    -1323.813196    -1323.817634  0.003316 -3.788233  0.134836
     spin moment: S , {S} =   -0.00000       0.0       0.0  -0.00000
   scf:   16    -1323.813365    -1323.813282    -1323.817725  0.000167 -3.788845  0.120664
     spin moment: S , {S} =   -0.00000       0.0       0.0  -0.00000
   scf:   17    -1323.813801    -1323.813551    -1323.818000  0.000497 -3.792083  0.067344
     spin moment: S , {S} =   -0.00000       0.0       0.0  -0.00000
   scf:   18    -1323.813835    -1323.813712    -1323.818167  0.000633 -3.795173  0.035459
     spin moment: S , {S} =   -0.00000       0.0       0.0  -0.00000
   scf:   19    -1323.813780    -1323.813763    -1323.818167  0.000753 -3.791863  0.048259
     spin moment: S , {S} =   -0.00000       0.0       0.0  -0.00000
   scf:   20    -1323.813803    -1323.813788    -1323.818203  0.000266 -3.791780  0.020486
     spin moment: S , {S} =   -0.00000       0.0       0.0  -0.00000
   scf:   21    -1323.813856    -1323.813822    -1323.818216  0.000244 -3.789010  0.013938
     spin moment: S , {S} =   -0.00000       0.0       0.0  -0.00000
   scf:   22    -1323.813835    -1323.813829    -1323.818220  0.000135 -3.786448  0.016192
     spin moment: S , {S} =   -0.00000       0.0       0.0  -0.00000
   scf:   23    -1323.813859    -1323.813845    -1323.818222  0.000182 -3.786275  0.010788
     spin moment: S , {S} =   -0.00000       0.0       0.0  -0.00000
   scf:   24    -1323.813827    -1323.813837    -1323.818222  0.000142 -3.785262  0.013452
     spin moment: S , {S} =   -0.00000       0.0       0.0  -0.00000
   scf:   25    -1323.813840    -1323.813839    -1323.818223  0.000025 -3.784863  0.011521
     spin moment: S , {S} =   -0.00000       0.0       0.0  -0.00000
   scf:   26    -1323.813839    -1323.813839    -1323.818225  0.000045 -3.784912  0.007772
     spin moment: S , {S} =   -0.00000       0.0       0.0  -0.00000
   scf:   27    -1323.813852    -1323.813847    -1323.818225  0.000128 -3.785962  0.008213
     spin moment: S , {S} =   -0.00000       0.0       0.0  -0.00000
   scf:   28    -1323.813832    -1323.813840    -1323.818226  0.000114 -3.785388  0.001805
     spin moment: S , {S} =   -0.00000       0.0       0.0  -0.00000
   scf:   29    -1323.813842    -1323.813841    -1323.818226  0.000012 -3.785505  0.000681
     spin moment: S , {S} =   -0.00000       0.0       0.0  -0.00000

SCF Convergence by DM+H criterion
max |DM_out - DM_in|         :     0.0000118216
max |H_out - H_in|      (eV) :     0.0006813813
SCF cycle converged after 29 iterations

Using DM_out to compute the final energy and forces
No. of atoms with KB's overlaping orbs in proc 0. Max # of overlaps:      30     174

siesta: E_KS(eV) =            -1323.8138

siesta: E_KS - E_eggbox =     -1323.8138
     spin moment: S , {S} =   -0.00000       0.0       0.0  -0.00000

siesta: Atomic forces (eV/Ang):
----------------------------------------
   Tot   -0.000000    0.005026   -0.000000
----------------------------------------
   Max    1.586480
   Res    0.581888    sqrt( Sum f_i^2 / 3N )
----------------------------------------
   Max    1.586480    constrained

Stress tensor Voigt[x,y,z,yz,xz,xy] (kbar):       -1.79       -4.16        0.47       -0.00        0.00        0.00
(Free)E + p*V (eV/cell)    -1322.6821
Target enthalpy (eV/cell)    -1323.8182

siesta: Program's energy decomposition (eV):
siesta: Ebs     =      -425.194746
siesta: Eions   =      2082.267704
siesta: Ena     =       444.972223
siesta: Ekin    =       899.524656
siesta: Enl     =      -100.178433
siesta: Eso     =         0.000000
siesta: Edftu   =         0.000000
siesta: DEna    =       -26.801103
siesta: DUscf   =         2.733408
siesta: DUext   =        -0.311897
siesta: Exc     =      -461.484993
siesta: eta*DQ  =         0.000000
siesta: Emadel  =         0.000000
siesta: Emeta   =         0.000000
siesta: Emolmec =         0.000000
siesta: Ekinion =         0.000000
siesta: Eharris =     -1323.813842
siesta: Etot    =     -1323.813841
siesta: FreeEng =     -1323.818226

siesta: Final energy (eV):
siesta:  Band Struct. =    -425.194746
siesta:       Kinetic =     899.524656
siesta:       Hartree =    6721.362402
siesta:       Edftu   =       0.000000
siesta:       Eso     =       0.000000
siesta:    Ext. field =      -0.311897
siesta:   Exch.-corr. =    -461.484993
siesta:  Ion-electron =  -14238.835915
siesta:       Ion-ion =    5755.931905
siesta:       Ekinion =       0.000000
siesta:         Total =   -1323.813841
siesta:         Fermi =      -3.785505

siesta: Atomic forces (eV/Ang):
siesta:      1   -0.000000    1.564475    0.000000
siesta:      2   -0.000000   -0.512594    0.000000
siesta:      3   -0.000000    0.523947   -0.000000
siesta:      4   -0.000000   -1.231238    0.000000
siesta:      5    0.000000   -1.586480   -0.000000
siesta:      6    0.000000    0.564774    0.000000
siesta:      7    0.000000   -0.598689   -0.000000
siesta:      8    0.000000    1.285083   -0.000000
siesta:      9    0.000000   -0.639011   -0.000000
siesta:     10   -0.000000    0.634760   -0.000000
siesta: ----------------------------------------
siesta:    Tot   -0.000000    0.005026   -0.000000

siesta: Stress tensor (static) (eV/Ang**3):
siesta:    -0.001114    0.000000   -0.000000
siesta:     0.000000   -0.002599   -0.000000
siesta:     0.000000   -0.000000    0.000291

siesta: Cell volume =        996.063069 Ang**3

siesta: Pressure (static):
siesta:                Solid            Molecule  Units
siesta:           0.00001242          0.00000067  Ry/Bohr**3
siesta:           0.00114057          0.00006147  eV/Ang**3
siesta:           1.82742015          0.09848070  kBar
(Free)E+ p_basis*V_orbitals  =       -1320.856277
(Free)Eharris+ p_basis*V_orbitals  =       -1320.856278
     spin moment: S , {S} =   -0.00000       0.0       0.0  -0.00000

siesta: Electric dipole (a.u.)  =   -0.000000    1.178801   -0.000000
siesta: Electric dipole (Debye) =   -0.000000    2.996216   -0.000000

dhscf: Vacuum level (max, mean) =    6.889318   -0.131232 eV

cite: Please see "siesta.bib" for an exhaustive BiBTeX file.
cite: Please clearly indicate Siesta version in published work: 4.1.5
cite: This calculation has made use of the following articles
cite: which are encouraged to be cited in a published work.
        Primary SIESTA paper
          DOI: www.doi.org/10.1088/0953-8984/14/11/302


timer: Elapsed wall time (sec) =      26.755
timer: CPU execution times (sec):

Routine            Calls   Time/call    Tot.time        %
siesta                 1      67.551      67.551   100.00
Setup                  1       1.068       1.068     1.58
bands                  1       0.000       0.000     0.00
KSV_init               1       0.000       0.000     0.00
IterGeom               1      66.040      66.040    97.76
state_init             1       0.133       0.133     0.20
hsparse                1       0.002       0.002     0.00
overlap                1       0.127       0.127     0.19
Setup_H0               1       1.618       1.618     2.40
naefs                  2       0.000       0.000     0.00
MolMec                 2       0.000       0.000     0.00
kinefsm                2       0.066       0.132     0.20
nlefsm                 2       0.423       0.846     1.25
DHSCF_Init             1       0.689       0.689     1.02
DHSCF1                 1       0.020       0.020     0.03
INITMESH               1       0.000       0.000     0.00
DHSCF2                 1       0.669       0.669     0.99
REMESH                 1       0.123       0.123     0.18
REORD                144       0.002       0.263     0.39
PHION                  1       0.420       0.420     0.62
COMM_BSC             258       0.001       0.332     0.49
POISON                33       0.042       1.386     2.05
fft                   66       0.015       1.017     1.51
IterSCF               29       2.160      62.647    92.74
setup_H               30       1.645      49.350    73.06
DHSCF                 32       1.601      51.237    75.85
DHSCF3                32       1.573      50.324    74.50
rhoofd                32       1.074      34.381    50.90
XC                    32       0.051       1.641     2.43
GXC-CellXC            32       0.038       1.216     1.80
cellXC                32       0.038       1.216     1.80
vmat                  31       0.275       8.514    12.60
compute_dm            29       0.456      13.217    19.57
diagon                29       0.454      13.168    19.49
c-eigval             174       0.021       3.661     5.42
c-buildHS            174       0.005       0.939     1.39
cdiag                348       0.022       7.774    11.51
cdiag1               348       0.001       0.498     0.74
cdiag2               348       0.003       1.078     1.60
cdiag3               348       0.018       6.099     9.03
c-eigvec             174       0.035       6.104     9.04
cdiag4               174       0.000       0.039     0.06
c-buildD             174       0.019       3.342     4.95
MIXER                 28       0.001       0.020     0.03
PostSCF                1       1.641       1.641     2.43
DHSCF4                 1       0.914       0.914     1.35
dfscf                  1       0.817       0.817     1.21
overfsm                1       0.007       0.007     0.01
state_analysis         1       0.000       0.000     0.00
siesta_move            1       0.000       0.000     0.00
Analysis               1       0.442       0.442     0.65
siesta_analysis        1       0.442       0.442     0.65
optical                1       0.000       0.000     0.00
  
>> End of run:  21-JUN-2024  19:07:21
Job completed
